# vtk DataFile Version 3.0
vtk output
ASCII
DATASET POLYDATA
POINTS 3300 float
1.01853 1.84934 6.5635 1.0595 1.86105 16.5313 1.166 1.89027 26.4114 
1.28169 1.92225 36.2612 1.24698 1.8821 46.2648 1.13636 1.80205 56.3601 
1.06577 1.8064 66.4516 1.0346 1.84074 76.5248 1.01618 1.847 86.5571 
1.01012 1.84645 96.5651 1.00937 1.84634 106.566 1.00933 1.84633 116.566 
1.00933 1.84633 126.566 1.00933 1.84633 136.566 1.00933 1.84633 146.566 
1.00933 1.84633 156.566 1.00933 1.84633 166.566 1.00933 1.84633 176.566 
1.00933 1.84633 186.566 1.00933 1.84633 196.566 1.00933 1.84633 206.566 
1.00933 1.84633 216.566 1.00933 1.84633 226.566 1.00933 1.84633 236.566 
1.00933 1.84633 246.566 1.04367 11.857 6.55415 1.17356 11.898 16.4366 
1.47743 11.9916 26.016 1.79504 12.0953 35.4883 1.67933 11.9569 45.4784 
1.38585 11.5559 55.7557 1.19791 11.47 66.0761 1.08906 11.7099 76.4006 
1.02811 11.8232 86.5336 1.01142 11.845 96.5617 1.00945 11.8464 106.566 
1.00934 11.8463 116.566 1.00933 11.8463 126.566 1.00933 11.8463 136.566 
1.00933 11.8463 146.566 1.00933 11.8463 156.566 1.00933 11.8463 166.566 
1.00933 11.8463 176.566 1.00933 11.8463 186.566 1.00933 11.8463 196.566 
1.00933 11.8463 206.566 1.00933 11.8463 216.566 1.00933 11.8463 226.566 
1.00933 11.8463 236.566 1.00933 11.8463 246.566 1.08862 21.8673 6.54389 
1.33279 21.9459 16.3726 1.80255 22.0606 25.7962 2.25115 22.1273 35.023 
2.11411 22.0377 44.797 1.79351 21.3479 54.899 1.43531 20.764 65.5129 
1.05134 21.1775 76.3538 0.982962 21.6611 86.5549 1.0064 21.8309 96.5577 
1.0093 21.8461 106.564 1.00934 21.8463 116.566 1.00933 21.8463 126.566 
1.00934 21.8463 136.566 1.00934 21.8463 146.566 1.00934 21.8463 156.566 
1.00933 21.8463 166.566 1.00933 21.8463 176.566 1.00933 21.8463 186.566 
1.00933 21.8463 196.566 1.00933 21.8463 206.566 1.00933 21.8463 216.566 
1.00933 21.8463 226.566 1.00933 21.8463 236.566 1.00933 21.8463 246.566 
1.12239 31.876 6.53875 1.43908 31.9645 16.4182 1.97787 31.9426 26.0514 
2.47394 31.7339 35.4427 2.42494 31.7873 45.0848 2.1575 31.2036 54.9131 
1.23993 29.9547 65.7407 0.431714 30.108 76.7406 0.690355 31.2159 86.649 
0.969608 31.7737 96.5378 1.00774 31.8437 106.561 1.00935 31.8466 116.566 
1.00948 31.8466 126.566 1.00963 31.8465 136.566 1.00969 31.8465 146.566 
1.0096 31.8465 156.566 1.00946 31.8464 166.566 1.00937 31.8463 176.566 
1.00934 31.8463 186.566 1.00933 31.8463 196.566 1.00933 31.8463 206.566 
1.00933 31.8463 216.566 1.00933 31.8463 226.566 1.00933 31.8463 236.566 
1.00933 31.8463 246.566 1.10603 41.8895 6.53083 1.39758 42.0333 16.4068 
1.90318 42.1415 26.073 2.30454 42.0074 35.5801 2.12382 41.8454 45.6973 
1.59506 40.9515 56.1261 0.263537 39.36 66.6673 -0.411179 39.4017 76.6789 
0.340652 40.8808 86.4036 0.914837 41.705 96.47 1.00632 41.8383 106.558 
1.01138 41.8473 116.568 1.0129 41.8473 126.568 1.01476 41.8467 136.569 
1.01551 41.8464 146.569 1.01419 41.8465 156.568 1.01183 41.8467 166.567 
1.01022 41.8466 176.566 1.00961 41.8464 186.566 1.00942 41.8463 196.566 
1.00936 41.8463 206.566 1.00934 41.8463 216.566 1.00933 41.8463 226.566 
1.00933 41.8463 236.566 1.00933 41.8463 246.566 1.06816 51.8799 6.54474 
1.2765 52.0233 16.4434 1.63146 52.2632 26.2117 1.83158 52.2998 36.0391 
1.66404 51.9949 46.3291 1.18408 51.243 56.7482 0.267873 50.1663 66.5256 
-0.195845 50.1295 75.9486 0.460752 51.1525 86.1089 0.936888 51.7186 96.4811 
1.02835 51.8216 106.613 1.03439 51.8308 116.618 1.04208 51.8352 126.602 
1.05137 51.8361 136.596 1.05651 51.8346 146.59 1.04817 51.837 156.579 
1.03039 51.8424 166.572 1.01768 51.8451 176.568 1.01244 51.8456 186.566 
1.01055 51.8457 196.566 1.00972 51.8461 206.566 1.00941 51.8463 216.566 
1.00934 51.8463 226.566 1.00933 51.8463 236.566 1.00933 51.8463 246.566 
1.04395 61.861 6.5728 1.17808 61.956 16.5544 1.4174 62.1979 26.4873 
1.60584 62.301 36.5151 1.62285 61.9752 46.6482 1.33221 61.5658 56.731 
0.975347 61.2611 66.5299 0.750609 61.3041 76.271 0.895655 61.6042 86.4238 
1.05349 61.762 96.6739 1.11811 61.7569 106.85 1.12731 61.7483 116.849 
1.14792 61.7644 126.768 1.16097 61.7784 136.703 1.16619 61.7845 146.649 
1.13868 61.7989 156.603 1.08208 61.8206 166.582 1.04108 61.8341 176.572 
1.02317 61.8392 186.567 1.0154 61.8418 196.565 1.01135 61.8445 206.566 
1.00973 61.8459 216.566 1.00937 61.8463 226.566 1.00933 61.8463 236.566 
1.00933 61.8463 246.566 1.02884 71.8509 6.5826 1.10284 71.8877 16.6161 
1.26694 72.0002 26.6822 1.52051 72.0599 36.8726 1.66633 71.8878 46.9985 
1.38351 71.7002 56.8725 1.15121 71.6722 66.7177 1.07898 71.7377 76.6416 
1.07878 71.7904 86.684 1.1426 71.7676 96.8682 1.2343 71.6851 107.143 
1.28495 71.6437 117.191 1.33356 71.639 127.074 1.31113 71.6639 136.903 
1.25895 71.7137 146.728 1.19643 71.7616 156.615 1.11686 71.7969 166.582 
1.06181 71.8188 176.575 1.03569 71.8293 186.57 1.02179 71.836 196.566 
1.01349 71.8421 206.565 1.01008 71.8453 216.566 1.00939 71.8462 226.566 
1.00934 71.8463 236.566 1.00933 71.8463 246.566 1.01639 81.8475 6.57398 
1.04453 81.8552 16.5953 1.13161 81.8755 26.6559 1.31622 81.8725 36.811 
1.42132 81.7997 46.928 1.21947 81.7514 56.843 1.05823 81.7898 66.7463 
1.0368 81.8263 76.7048 1.05242 81.8237 86.7089 1.10969 81.777 96.8241 
1.21991 81.7057 107.05 1.34601 81.6416 117.19 1.4477 81.571 127.185 
1.38449 81.5828 136.996 1.2324 81.6926 146.746 1.13109 81.7782 156.606 
1.07603 81.8107 166.575 1.04646 81.8247 176.574 1.03046 81.8322 186.571 
1.01966 81.8377 196.567 1.01271 81.8428 206.566 1.00989 81.8455 216.566 
1.00935 81.8462 226.566 1.00933 81.8463 236.566 1.00933 81.8463 246.566 
1.01058 91.8466 6.56775 1.01621 91.8478 16.5724 1.03909 91.8484 26.59 
1.09268 91.8349 36.638 1.1157 91.8077 46.6835 1.0401 91.818 56.6754 
0.975367 91.8522 66.6582 0.982071 91.8532 76.6379 1.00961 91.8354 86.6287 
1.04383 91.8062 96.6695 1.11195 91.7624 106.774 1.22348 91.6965 116.893 
1.32074 91.6196 126.932 1.27623 91.6352 136.82 1.13829 91.7403 146.661 
1.05483 91.8133 156.584 1.02964 91.8338 166.57 1.02214 91.8386 176.57 
1.01735 91.841 186.569 1.01321 91.8431 196.567 1.01055 91.8451 206.566 
1.00952 91.846 216.566 1.00934 91.8463 226.566 1.00933 91.8463 236.566 
1.00933 91.8463 246.566 1.00942 101.846 6.56645 1.00985 101.846 16.567 
1.01193 101.846 26.5695 1.01677 101.842 36.5765 1.01455 101.838 46.5862 
0.994325 101.85 56.5927 0.979199 101.861 66.5939 0.99058 101.854 76.5847 
1.00554 101.843 86.5787 1.01667 101.833 96.5884 1.0397 101.814 106.62 
1.08337 101.776 116.666 1.12011 101.74 126.679 1.10317 101.757 136.637 
1.05078 101.806 146.589 1.02009 101.836 156.569 1.01276 101.844 166.567 
1.01166 101.845 176.567 1.01088 101.845 186.567 1.01006 101.845 196.566 
1.00955 101.846 206.566 1.00937 101.846 216.566 1.00933 101.846 226.566 
1.00933 101.846 236.566 1.00933 101.846 246.566 1.00934 111.846 6.56634 
1.00935 111.846 16.5664 1.00939 111.846 26.5666 1.00934 111.846 36.5673 
1.0078 111.846 46.5692 1.00357 111.848 56.5714 1.00174 111.85 66.5712 
1.00555 111.848 76.5684 1.00876 111.846 86.5673 1.01058 111.844 96.5691 
1.01487 111.839 106.575 1.02323 111.828 116.584 1.02937 111.82 126.586 
1.02551 111.826 136.576 1.01609 111.838 146.568 1.01086 111.844 156.566 
1.00969 111.846 166.566 1.00957 111.846 176.566 1.00949 111.846 186.566 
1.00941 111.846 196.566 1.00936 111.846 206.566 1.00934 111.846 216.566 
1.00933 111.846 226.566 1.00933 111.846 236.566 1.00933 111.846 246.566 
11.0457 1.85805 6.55353 11.2036 1.88708 16.4002 11.5736 1.92261 25.8602 
11.9197 1.9447 35.2599 11.7924 1.81996 45.3451 11.4695 1.62713 55.7023 
11.1904 1.69901 66.0365 11.0795 1.8271 76.3718 11.0274 1.84645 86.5252 
11.0112 1.84602 96.5612 11.0094 1.84631 106.566 11.0093 1.84633 116.566 
11.0093 1.84633 126.566 11.0093 1.84633 136.566 11.0093 1.84633 146.566 
11.0093 1.84633 156.566 11.0093 1.84633 166.566 11.0093 1.84633 176.566 
11.0093 1.84633 186.566 11.0093 1.84633 196.566 11.0093 1.84633 206.566 
11.0093 1.84633 216.566 11.0093 1.84633 226.566 11.0093 1.84633 236.566 
11.0093 1.84633 246.566 11.1498 11.9001 6.49845 11.6915 12.0703 15.8631 
12.9692 12.3303 23.6846 14.3552 12.4497 30.9443 13.4052 11.7819 41.7469 
12.2846 10.5062 53.5262 11.4244 10.2801 64.597 11.1333 11.2987 75.8705 
11.0268 11.7411 86.4294 11.0076 11.8332 96.5475 11.0089 11.8455 106.564 
11.0093 11.8463 116.566 11.0093 11.8463 126.566 11.0093 11.8463 136.566 
11.0093 11.8463 146.566 11.0093 11.8463 156.566 11.0093 11.8463 166.566 
11.0093 11.8463 176.566 11.0093 11.8463 186.566 11.0093 11.8463 196.566 
11.0093 11.8463 206.566 11.0093 11.8463 216.566 11.0093 11.8463 226.566 
11.0093 11.8463 236.566 11.0093 11.8463 246.566 11.3235 21.9661 6.40961 
12.2901 22.4168 15.3749 14.133 22.9932 22.419 15.8318 22.44 29.019 
14.2728 21.5486 39.6709 12.6773 19.6398 51.8053 11.7686 17.7977 63.024 
10.9544 19.7279 75.7427 10.8518 21.243 86.535 10.9734 21.7703 96.544 
11.0061 21.8422 106.561 11.0092 21.8463 116.566 11.0093 21.8464 126.566 
11.0094 21.8464 136.566 11.0094 21.8464 146.566 11.0094 21.8464 156.566 
11.0093 21.8464 166.566 11.0093 21.8463 176.566 11.0093 21.8463 186.566 
11.0093 21.8463 196.566 11.0093 21.8463 206.566 11.0093 21.8463 216.566 
11.0093 21.8463 226.566 11.0093 21.8463 236.566 11.0093 21.8463 246.566 
11.4355 31.98 6.35527 12.5514 32.4081 15.5255 14.054 32.4509 23.6824 
14.8636 31.3881 31.8999 14.1275 30.9949 42.0031 12.7134 29.5338 53.2476 
11.8904 26.4826 63.9747 10.2224 27.9419 77.3609 10.4207 30.3769 87.0848 
10.9035 31.6366 96.5518 11.0017 31.8359 106.554 11.0094 31.8475 116.565 
11.0106 31.8474 126.567 11.0117 31.8473 136.568 11.0119 31.8475 146.568 
11.0111 31.8475 156.568 11.0101 31.8472 166.567 11.0096 31.8467 176.566 
11.0094 31.8465 186.566 11.0093 31.8463 196.566 11.0093 31.8463 206.566 
11.0093 31.8463 216.566 11.0093 31.8463 226.566 11.0093 31.8463 236.566 
11.0093 31.8463 246.566 11.3404 41.9946 6.37252 12.218 42.4947 15.7493 
13.3585 42.8596 24.5079 14.0176 42.3013 33.182 13.2141 41.6504 43.4881 
12.0069 39.2237 56.2649 10.0496 36.4667 68.2854 9.19864 36.7253 78.2025 
10.0928 39.8795 86.8629 10.8635 41.5404 96.447 11.0055 41.8223 106.558 
[...]
POINT_DATA 3300
VECTORS velocity double
0.00831492 0.00238568 -0.00341553 0.0394852 0.00735073 -0.0376452 0.0979954 0.00597559 -0.137821 
0.140729 -0.00475675 -0.213897 0.117899 -0.0401487 -0.195518 0.0666853 -0.0819798 -0.152414 
0.0353613 -0.056322 -0.0952839 0.0206861 -0.00889047 -0.0348887 0.00616202 0.000164795 -0.00811524 
0.000744415 9.10459e-05 -0.0011224 4.15454e-05 1.42274e-05 -7.96981e-05 1.36451e-06 1.20796e-06 -2.72128e-06 
3.27712e-08 4.7704e-08 -4.45067e-08 9.60041e-10 4.4494e-09 -2.93821e-10 1.31868e-09 4.3245e-09 4.68258e-10 
9.53947e-10 3.30812e-09 -4.0098e-11 3.03986e-10 1.57105e-09 -3.50207e-10 1.49794e-11 4.52197e-10 -2.38062e-10 
-2.08097e-11 7.84789e-11 -7.69241e-11 -8.45827e-12 9.20169e-12 -1.42081e-11 -1.91626e-12 1.31042e-12 -1.63159e-12 
-2.71198e-13 3.12842e-13 -1.23105e-13 -2.65662e-14 6.15037e-14 -1.8281e-14 -2.43276e-15 7.05536e-15 -2.70351e-15 
-1.83147e-16 4.12649e-16 -1.6719e-16 0.029568 0.00835775 -0.0152257 0.116962 0.0285897 -0.144975 
0.234256 0.0374871 -0.494453 0.287737 0.0316518 -0.734683 0.230663 -0.105929 -0.686812 
0.138508 -0.419938 -0.593207 0.0799117 -0.443526 -0.3894 0.0469447 -0.153246 -0.119666 
0.0128785 -0.0292367 -0.0235239 0.00170127 -0.00175074 -0.00403081 0.000107516 4.28519e-05 -0.000393926 
4.98202e-06 8.61371e-06 -1.8538e-05 1.43792e-07 6.40974e-07 -5.05622e-07 1.03648e-07 3.71441e-07 4.17528e-08 
1.69025e-07 3.96256e-07 8.13305e-08 1.18182e-07 3.07477e-07 1.80372e-08 4.23783e-08 1.54713e-07 -2.62322e-08 
5.84246e-09 5.0155e-08 -2.31795e-08 -1.18597e-09 1.12347e-08 -8.98977e-09 -7.59143e-10 2.17826e-09 -2.14254e-09 
-1.81363e-10 4.69447e-10 -3.6056e-10 -1.97777e-11 1.05196e-10 -5.01075e-11 -2.91325e-13 1.94244e-11 -8.50689e-12 
1.09537e-13 2.39524e-12 -1.14312e-12 9.79847e-15 1.66793e-13 -7.91892e-14 0.0668653 0.0177582 -0.0290111 
0.22945 0.0762831 -0.224188 0.418699 0.136528 -0.712737 0.508572 0.171446 -1.0978 
0.450038 0.0725681 -1.2273 0.360073 -0.56483 -1.28856 0.134179 -1.11895 -0.76334 
-0.107856 -0.7397 -0.0249338 -0.0677327 -0.239029 0.0400834 -0.00610646 -0.020381 -0.00511747 
-0.000100704 -0.000280109 -0.00148551 6.1404e-06 3.80528e-05 -0.000101443 1.52773e-06 1.56905e-05 -6.01991e-06 
7.55492e-06 1.36465e-05 3.98015e-06 1.00471e-05 1.38745e-05 5.68341e-06 7.11702e-06 1.11319e-05 2.31814e-06 
2.97804e-06 6.16229e-06 -4.21125e-07 7.01346e-07 2.35114e-06 -8.85774e-07 7.2605e-08 6.82079e-07 -4.58058e-07 
-3.58288e-09 1.75447e-07 -1.41852e-07 -1.94836e-10 4.30023e-08 -3.04632e-08 1.20905e-09 9.98999e-09 -5.27432e-09 
4.14162e-10 1.97191e-09 -9.65453e-10 6.40619e-11 2.69242e-10 -1.33979e-10 5.58818e-12 2.12039e-11 -1.00046e-11 
0.0962407 0.0274364 -0.0339893 0.329074 0.104292 -0.174488 0.645634 0.098324 -0.519442 
0.857878 0.0333459 -0.90899 0.833546 0.0956683 -1.15851 0.631226 -0.499214 -1.30066 
-0.305911 -1.83696 -0.44525 -0.907905 -1.83716 0.448887 -0.444647 -0.762007 0.19632 
-0.0527304 -0.0911407 -0.0186934 -0.00189594 -0.0031394 -0.00530604 1.21104e-05 0.000260679 -0.000403713 
0.00013138 0.000248167 -4.85505e-06 0.00027699 0.000182041 0.000160702 0.000329259 0.000164662 0.000194593 
0.000248373 0.000141632 0.000106049 0.000120056 9.53744e-05 2.36215e-05 3.80359e-05 4.55833e-05 -8.17007e-06 
9.19543e-06 1.59919e-05 -9.05974e-06 2.35143e-06 4.33831e-06 -3.83295e-06 7.10826e-07 1.03151e-06 -1.011e-06 
1.91918e-07 2.78138e-07 -2.02041e-07 3.76286e-08 7.02899e-08 -3.94293e-08 5.28695e-09 1.17812e-08 -5.89718e-09 
4.94125e-10 1.10091e-09 -4.9076e-10 0.0847804 0.0423283 -0.0400314 0.314397 0.177147 -0.172748 
0.662247 0.303138 -0.482807 0.865825 0.289774 -0.790626 0.731272 0.131644 -0.611524 
0.257507 -0.718632 -0.353101 -1.16044 -2.24093 -0.0117542 -1.71491 -2.32494 0.191411 
-0.78285 -1.01254 -0.0740057 -0.106229 -0.152179 -0.0823226 -0.00351564 -0.00851369 -0.00760576 
0.00168075 0.000634364 0.00209791 0.00300139 0.000687976 0.00225739 0.004607 8.79474e-05 0.0030267 
0.00530371 -0.000261477 0.00306901 0.00427478 -7.91068e-05 0.00185568 0.00225701 0.000271225 0.000723553 
0.000828978 0.000258726 0.000113895 0.000263654 9.99979e-05 -5.74427e-05 8.94022e-05 1.14745e-05 -4.54819e-05 
2.82621e-05 -1.7261e-06 -1.56597e-05 6.57138e-06 1.10014e-06 -3.36079e-06 1.07733e-06 8.7797e-07 -6.312e-07 
1.4351e-07 2.13193e-07 -1.03277e-07 1.4486e-08 2.44672e-08 -9.91793e-09 0.0534693 0.0337076 -0.0254022 
0.225865 0.169138 -0.133789 0.490447 0.392642 -0.339203 0.618789 0.45621 -0.406422 
0.498118 0.182841 -0.142299 0.0470175 -0.457384 0.119596 -0.887185 -1.3305 -0.19239 
-1.31496 -1.42297 -0.602088 -0.565954 -0.612407 -0.404233 -0.0743218 -0.117904 -0.07129 
0.0120362 -0.0279698 0.0444169 0.0166599 -0.0200262 0.0518737 0.0235316 -0.0140281 0.0354426 
0.0317851 -0.0121084 0.0268155 0.0367129 -0.0132071 0.0208009 0.03132 -0.0104103 0.0116561 
0.0175211 -0.00447199 0.00535062 0.0071752 -0.00137 0.0016654 0.00280237 -0.000773213 5.9871e-05 
0.00115353 -0.000607059 -0.000235817 0.000387846 -0.000251325 -0.000117768 8.40993e-05 -4.15681e-05 -2.35888e-05 
1.17183e-05 8.47857e-07 -3.244e-06 1.46412e-06 1.43577e-06 -6.38127e-07 1.69265e-07 2.30787e-07 -7.96162e-08 
0.0321968 0.0150794 0.00338041 0.147896 0.109109 -0.0261444 0.339102 0.340993 -0.0934296 
0.497871 0.44816 -0.0263243 0.534557 0.149016 0.0903046 0.267449 -0.208152 0.132846 
-0.0684556 -0.43134 -0.0459618 -0.250015 -0.396883 -0.240444 -0.107701 -0.187968 -0.109786 
0.0221329 -0.0771225 0.0877216 0.0565491 -0.0955819 0.242299 0.0574308 -0.108325 0.262833 
0.0812178 -0.0895144 0.193793 0.102291 -0.0714787 0.128407 0.113244 -0.0616551 0.0749296 
0.0978904 -0.0460217 0.0315804 0.0565201 -0.0245849 0.013365 0.0252502 -0.011425 0.00555676 
0.0115737 -0.00672563 0.00124743 0.00548594 -0.00436464 -0.000469959 0.00193568 -0.00178447 -0.000388337 
0.000389776 -0.000377218 -5.58335e-05 4.2132e-05 -3.50741e-05 1.23669e-06 4.69636e-06 1.59316e-06 -6.91349e-07 
7.69003e-07 8.05131e-07 -2.15257e-07 0.0183617 0.00489861 0.0147803 0.0852462 0.0463806 0.0413948 
0.225886 0.171223 0.0930605 0.443582 0.241282 0.279633 0.574307 0.0700249 0.409918 
0.31499 -0.112868 0.291782 0.0942166 -0.140556 0.143296 0.0344441 -0.0842543 0.0733454 
0.0406466 -0.0449844 0.101652 0.0717289 -0.0666713 0.230281 0.0918721 -0.144155 0.450606 
0.110391 -0.188445 0.531973 0.16775 -0.194301 0.465146 0.189805 -0.173061 0.329428 
0.172792 -0.122145 0.161757 0.135799 -0.0733683 0.0455186 0.0791592 -0.0413835 0.0127454 
0.0389434 -0.0230035 0.00727251 0.0205928 -0.0147478 0.00339396 0.0107347 -0.00964887 -4.23783e-05 
0.00387939 -0.00408996 -0.000483456 0.000721798 -0.000972643 -3.11165e-05 5.26514e-05 -0.000130558 1.85424e-05 
4.61855e-06 -6.21287e-06 -3.13517e-08 1.58156e-06 1.04684e-06 -4.83608e-07 0.00673422 0.00136867 0.0072781 
0.0329583 0.0104656 0.026791 0.110437 0.036635 0.0796025 0.271961 0.0460708 0.22127 
0.361772 -0.0162071 0.335173 0.174391 -0.0701343 0.260509 0.0194708 -0.0432211 0.168578 
0.000539391 -0.0120185 0.129436 0.018471 -0.014055 0.125887 0.0481679 -0.0466825 0.196114 
0.0871823 -0.0938289 0.355633 0.149787 -0.143071 0.4902 0.238236 -0.211368 0.539617 
0.243144 -0.223842 0.421625 0.16113 -0.135614 0.188912 0.0909069 -0.05679 0.041584 
0.0495536 -0.0279743 0.00751768 0.0274472 -0.0170677 0.00596078 0.0163521 -0.0116755 0.00426266 
0.0087908 -0.00775922 0.00099725 0.00311244 -0.00335378 -2.56932e-05 0.000519401 -0.00085163 2.06218e-05 
1.53397e-05 -0.000138287 2.69397e-06 1.88109e-07 -1.21843e-05 -4.88525e-06 1.57655e-06 1.83666e-07 -1.32405e-06 
0.0012166 0.000295799 0.00137621 0.00653149 0.00177272 0.0058134 0.0271385 0.00372402 0.0214964 
0.074403 -0.00478694 0.0643741 0.0927838 -0.0268839 0.106774 0.0201328 -0.0191731 0.102367 
-0.0456955 0.0119869 0.089632 -0.0384752 0.0122151 0.0714222 -0.00858673 -0.00562106 0.0578505 
0.0161207 -0.0270694 0.0807439 0.0517877 -0.0520992 0.151495 0.117269 -0.0931422 0.249273 
0.193468 -0.157691 0.310746 0.190136 -0.167357 0.245035 0.101782 -0.0912764 0.100361 
0.0369677 -0.0284194 0.0190906 0.0160059 -0.00997477 0.00331302 0.00996901 -0.0061187 0.00319888 
0.00646775 -0.00437121 0.00251579 0.00336707 -0.00281067 0.000917946 0.00112539 -0.00114882 0.000159186 
0.00017737 -0.000281853 1.1986e-06 2.85553e-06 -5.01067e-05 -1.5791e-05 1.13829e-07 -6.57816e-06 -6.58786e-06 
8.56686e-07 -5.82716e-07 -1.52557e-06 9.09392e-05 3.37202e-05 0.000122125 0.00049491 0.000212973 0.000672808 
0.00240886 -2.47489e-05 0.00302033 0.0067253 -0.00333141 0.00957399 0.00389923 -0.00652859 0.0187945 
-0.0171224 0.00507928 0.0260824 -0.033988 0.0176507 0.0289709 -0.0219887 0.00970836 0.0199704 
-0.00538655 -0.00138772 0.0122852 0.0044479 -0.00963147 0.0183896 0.0200334 -0.0226439 0.0421835 
0.0491319 -0.0483646 0.0792533 0.0769832 -0.0768052 0.095564 0.0715507 -0.0708209 0.0665302 
0.0346244 -0.0341505 0.0232925 0.00946139 -0.00884963 0.0036722 0.00296711 -0.00215643 0.000773703 
0.00198993 -0.00123197 0.000897499 0.00135545 -0.000902187 0.000686252 0.000662539 -0.000528625 0.000272653 
0.000207716 -0.0001823 4.30148e-05 3.5738e-05 -3.61485e-05 -1.30782e-05 2.82208e-06 -6.53739e-06 -9.10549e-06 
6.80048e-07 -1.5311e-06 -2.64914e-06 3.20156e-07 -3.64818e-07 -6.34995e-07 5.50363e-06 1.31481e-06 1.11137e-05 
1.93774e-05 9.36311e-06 7.46624e-05 5.5071e-05 -3.44345e-05 0.000309357 -2.8814e-05 -0.000344967 0.00102437 
-0.00166232 -0.000121833 0.00283337 -0.00621725 0.00282481 0.0052947 -0.00836646 0.00498681 0.00532013 
-0.00425289 0.00223342 0.00243627 -0.000699707 -0.000226761 0.000968471 0.00101375 -0.00181903 0.00242436 
0.00441826 -0.0056555 0.00761437 0.0108057 -0.0137214 0.0153913 0.0157177 -0.020528 0.0170742 
0.0134112 -0.0166553 0.00978764 0.00597781 -0.00703909 0.00249749 0.00141628 -0.00157763 0.000188193 
0.000335792 -0.000294239 6.03061e-05 0.000218452 -0.000154179 0.00011225 0.00015194 -0.000114845 8.03765e-05 
7.34299e-05 -6.06936e-05 2.43158e-05 2.44582e-05 -1.68399e-05 -4.07604e-06 5.72022e-06 -2.18218e-06 -5.91277e-06 
1.0399e-06 -3.31959e-07 -1.95618e-06 2.50651e-07 -1.83089e-07 -4.17929e-07 7.10674e-08 -7.69376e-08 -1.05202e-07 
0.0335127 0.00834952 -0.0181835 0.158795 0.0053415 -0.207527 0.352844 -0.0878063 -0.730566 
0.445748 -0.229929 -1.0331 0.406762 -0.338875 -0.819385 0.246057 -0.412789 -0.662504 
0.0891837 -0.257036 -0.453812 0.0500473 -0.0469295 -0.160762 0.0150437 -0.00354337 -0.0346493 
0.0016314 -0.000542095 -0.0045991 6.9098e-05 -2.6758e-05 -0.000344155 1.95255e-06 1.65134e-06 -1.28484e-05 
7.49121e-08 1.68005e-07 -2.3482e-07 1.16781e-08 4.07296e-08 5.71405e-09 1.59102e-08 4.38895e-08 1.12522e-08 
1.00553e-08 3.43391e-08 3.51926e-09 2.66627e-09 1.68671e-08 -2.30038e-09 -1.07163e-10 5.11065e-09 -2.33735e-09 
-2.81095e-10 9.53364e-10 -8.86844e-10 -1.02213e-10 1.15266e-10 -1.96937e-10 -2.2978e-11 1.42955e-11 -2.98249e-11 
-3.11415e-12 3.80788e-12 -3.56739e-12 -2.60928e-13 9.48774e-13 -5.49621e-13 -2.04986e-14 1.31332e-13 -7.10461e-14 
-1.52288e-15 9.20907e-15 -4.71116e-15 0.125466 0.0423561 -0.0956703 0.524569 0.130252 -0.893634 
1.12032 0.0913791 -3.03315 1.46899 -0.283742 -5.05665 0.96436 -0.805693 -3.44177 
0.493899 -1.86549 -2.26069 0.0329975 -1.91285 -1.60906 0.0137379 -0.659666 -0.510048 
-0.00519166 -0.133161 -0.0919266 -0.00363167 -0.0154033 -0.0153696 -0.000472967 -0.000823419 -0.00164838 
-1.6413e-05 -6.93722e-06 -8.35103e-05 2.04937e-07 3.5084e-06 -2.21279e-06 1.29885e-06 3.35148e-06 1.06578e-06 
1.71458e-06 3.72861e-06 1.37531e-06 1.0636e-06 2.99244e-06 5.52428e-07 3.0873e-07 1.57043e-06 -1.25056e-07 
6.86459e-09 5.38041e-07 -2.19143e-07 -2.66713e-08 1.27975e-07 -1.03819e-07 -1.14416e-08 2.51295e-08 -2.9791e-08 
-2.60284e-09 5.33053e-09 -6.04623e-09 -2.55703e-10 1.32824e-09 -9.94118e-10 8.40514e-12 2.9033e-10 -1.72357e-10 
3.88666e-12 4.08875e-11 -2.28181e-11 3.7103e-13 3.16893e-12 -1.64966e-12 0.274863 0.110099 -0.214386 
0.964999 0.519671 -1.48804 1.88214 1.07243 -4.42471 2.43948 0.974834 -7.42987 
1.49115 0.0329683 -5.44268 0.600396 -2.32972 -3.93335 -0.0156587 -4.34525 -2.8777 
-0.340216 -2.17968 -0.26198 -0.244564 -0.717738 0.155814 -0.0457855 -0.0913275 -0.00511185 
-0.00352963 -0.0045373 -0.00462617 -0.000120537 3.38581e-05 -0.000378693 2.16269e-05 0.000104314 -1.15054e-05 
7.13085e-05 0.000102145 6.35148e-05 8.35416e-05 0.000113622 7.83688e-05 5.33582e-05 9.78963e-05 4.15357e-05 
1.90167e-05 5.78806e-05 5.04947e-06 2.93113e-06 2.37223e-05 -6.90596e-06 -4.31726e-07 7.34582e-06 -5.10612e-06 
-3.41832e-07 1.93235e-06 -1.93589e-06 -5.88045e-08 4.8419e-07 -4.78057e-07 1.15282e-08 1.2607e-07 -9.06865e-08 
6.30641e-09 2.89508e-08 -1.70332e-08 1.09251e-09 4.43598e-09 -2.41283e-09 1.04145e-10 3.8354e-10 -1.90547e-10 
0.372141 0.137452 -0.266204 1.20243 0.569596 -1.23099 2.1556 0.767195 -3.1024 
2.62476 0.192213 -4.7228 2.07999 -0.048766 -3.56838 1.02494 -1.71343 -3.21104 
0.0747375 -5.04506 -2.08995 -1.26117 -3.7793 1.50533 -0.718393 -1.60395 0.819759 
-0.125843 -0.24764 0.026852 -0.00821949 -0.0116543 -0.0113016 -1.0156e-05 0.00107214 -0.00127109 
0.00106413 0.000914821 0.000536558 0.0019992 0.00069199 0.00189479 0.00217917 0.000867942 0.00230419 
0.00155728 0.000973788 0.00154736 0.000743069 0.000772263 0.000569301 0.000239094 0.000415569 2.98456e-05 
5.96257e-05 0.000156417 -8.21924e-05 1.69591e-05 4.23346e-05 -4.64047e-05 6.64767e-06 1.01834e-05 -1.34483e-05 
2.30026e-06 3.21266e-06 -2.71529e-06 5.26608e-07 9.63175e-07 -5.57151e-07 8.04972e-08 1.83163e-07 -9.2104e-08 
8.21811e-09 1.90786e-08 -8.56034e-09 0.297438 0.162262 -0.233158 0.982236 0.676802 -0.910043 
1.78596 1.15609 -2.11505 2.16542 1.09065 -3.27117 1.5752 0.468872 -2.03146 
0.549215 -2.19263 -0.329354 -1.48128 -5.10196 1.17365 -2.23224 -4.65356 2.13363 
-0.981691 -1.94946 0.545921 -0.152843 -0.319797 -0.0765261 -0.00617275 -0.0274436 -0.00495197 
0.00682931 -0.0139289 0.0155534 0.0172584 -0.0141797 0.0194954 0.0259546 -0.013506 0.0283167 
0.0279137 -0.0110836 0.0328905 0.022763 -0.0054826 0.0254933 0.0134597 3.67572e-06 0.0131298 
0.00587969 0.00136655 0.00370768 0.00226629 0.0004607 0.000113012 0.000900008 -0.000148014 -0.000324742 
0.000316381 -0.000109917 -0.000118784 7.92183e-05 -8.27531e-06 -1.74839e-05 1.36994e-05 7.97237e-06 -3.85387e-06 
1.93886e-06 2.804e-06 -1.13426e-06 2.21601e-07 3.93289e-07 -1.49156e-07 0.168617 0.142869 -0.12549 
0.573372 0.757474 -0.565633 0.923236 1.76704 -0.998124 1.12005 1.52887 -0.631988 
1.07947 -0.139728 -0.0656106 0.150625 -1.75851 0.738706 -0.925947 -3.17505 0.082631 
-1.49828 -3.09084 -0.644785 -0.576444 -1.19594 -0.565274 -0.0608069 -0.259147 -0.0394246 
0.0166667 -0.199541 0.226926 0.035595 -0.242123 0.263764 0.0939446 -0.208763 0.211778 
0.133551 -0.169883 0.202608 0.146474 -0.146486 0.207752 0.135127 -0.105222 0.164366 
0.0934929 -0.0535326 0.0977172 0.0502691 -0.0244354 0.0393974 0.0253913 -0.0158652 0.0102553 
0.012349 -0.0108189 0.00154235 0.00440801 -0.00449752 0.000481592 0.000918987 -0.00101531 0.000368486 
0.000111623 -0.000101564 7.92603e-05 1.38646e-05 7.47934e-06 1.44613e-06 2.15608e-06 3.03292e-06 -8.59783e-07 
0.109146 0.0954502 0.00390365 0.39763 0.784921 -0.118392 0.691561 2.32922 -0.0481072 
0.98783 2.15034 0.721607 1.13415 -0.0190357 0.661302 0.53022 -1.14576 0.749652 
0.196297 -1.30038 0.298887 0.0694785 -0.880287 -0.15085 0.102597 -0.379686 0.12735 
0.110009 -0.319433 0.555559 0.0639031 -0.659264 1.0647 0.0979098 -0.823137 1.18031 
0.250519 -0.75031 0.963388 0.314086 -0.64286 0.816347 0.341624 -0.535534 0.693583 
0.35724 -0.376467 0.470295 0.273416 -0.223292 0.270251 0.165092 -0.13466 0.13113 
0.100153 -0.0969002 0.05588 0.0567404 -0.0661065 0.0202281 0.0202057 -0.0298081 0.00975405 
0.00297914 -0.00841918 0.00468512 -3.90609e-05 -0.00146943 0.000982353 -2.87434e-05 -0.000118349 6.94062e-05 
4.18844e-06 2.8023e-06 -1.29006e-06 0.0733888 0.0438328 0.0586537 0.29544 0.495722 0.166912 
0.577273 1.55021 0.464878 0.824042 1.38423 1.35604 0.930972 -0.133017 1.65252 
0.437147 -0.856043 1.41833 0.190044 -0.690632 1.10518 0.23504 -0.330193 0.951956 
0.229698 -0.185593 0.98782 0.15619 -0.414056 1.22784 0.0960248 -0.9412 2.08698 
0.19638 -1.1777 2.47951 0.375492 -1.23101 2.33163 0.331927 -1.17518 1.98175 
0.346013 -0.875793 1.34595 0.437423 -0.506552 0.650891 0.365141 -0.300184 0.296784 
0.239804 -0.214374 0.17443 0.167599 -0.175847 0.111849 0.103258 -0.129334 0.0582151 
0.0338652 -0.0634313 0.0331009 0.00144828 -0.0208232 0.0144605 -0.00168737 -0.00463613 0.00272451 
-0.000356683 -0.000596873 0.000150855 -1.81107e-05 -3.51377e-05 -1.80901e-05 0.0282034 0.0121821 0.0289455 
0.125788 0.135268 0.104723 0.307262 0.450011 0.295861 0.51706 0.427928 0.823656 
0.536061 -0.145097 1.28881 0.108921 -0.354912 1.26893 -0.18668 -0.162537 1.152 
-0.156925 -0.0508689 1.08074 -0.033202 -0.0814096 1.00723 0.0226925 -0.308103 1.04396 
0.0673281 -0.594242 1.67561 0.196024 -0.798688 2.55222 0.269443 -1.20607 3.07034 
0.180747 -1.27282 2.58846 0.18492 -0.800543 1.43723 0.261562 -0.342719 0.496425 
0.240409 -0.171801 0.162216 0.17757 -0.128633 0.118741 0.132435 -0.114143 0.10349 
0.0778224 -0.0901668 0.0681183 0.0193415 -0.0472929 0.0416967 -0.00419933 -0.0178074 0.0159614 
-0.00331801 -0.00502058 0.00223095 -0.00072018 -0.000916494 -9.53841e-05 -6.57004e-05 -0.000107291 -8.16901e-05 
0.00465338 0.00278242 0.00575723 0.0202505 0.0257422 0.0238581 0.0573821 0.0835579 0.0791596 
0.114062 0.0812264 0.235059 0.064771 -0.0319577 0.455767 -0.19295 0.0478041 0.593234 
-0.430471 0.196152 0.667252 -0.355694 0.128203 0.594754 -0.152246 -0.0138246 0.455401 
-0.0494378 -0.16685 0.427404 0.00509092 -0.308071 0.691485 0.0920433 -0.479904 1.29047 
0.148185 -0.822884 1.84334 0.146403 -0.861682 1.60243 0.124267 -0.472977 0.772445 
0.0999142 -0.157206 0.209083 0.0846632 -0.0610387 0.0602042 0.0721476 -0.0439198 0.0517866 
0.0539607 -0.0390655 0.0495559 0.0270679 -0.0300955 0.0353777 0.00413442 -0.0146868 0.0202191 
-0.00298998 -0.00559905 0.00635847 -0.00179896 -0.0020103 0.00041569 -0.000454442 -0.000549396 -0.000276346 
-5.62919e-05 -0.000105389 -0.000103317 0.000238676 0.000477151 0.000926882 -0.000489972 0.00423925 0.00544745 
-0.0052641 0.0139871 0.0196681 -0.0153946 0.0163108 0.0555475 -0.0563424 0.0195382 0.133023 
-0.169677 0.109646 0.236344 -0.262538 0.179686 0.279132 -0.185929 0.0983918 0.198209 
-0.06636 0.00318747 0.106907 -0.0143013 -0.0544134 0.0990356 0.0189583 -0.118904 0.197166 
0.0662829 -0.243401 0.400124 0.101291 -0.399084 0.542338 0.110374 -0.370029 0.423484 
0.0692422 -0.178754 0.174999 0.0293142 -0.0501623 0.0407988 0.0185009 -0.0156382 0.0136655 
0.0170799 -0.0109417 0.0135814 0.0123849 -0.00945379 0.0125847 0.00517458 -0.0063165 0.00871159 
0.000485139 -0.00234198 0.00432803 -0.000575805 -0.000720603 0.0010281 -0.000351895 -0.000357405 -6.89794e-05 
-0.00010703 -0.000151938 -0.00012578 -1.57087e-05 -4.02879e-05 -4.35188e-05 1.75822e-05 3.87051e-05 0.000166517 
-0.000266769 0.000332085 0.00113238 -0.00195067 0.00114719 0.00408331 -0.0063407 0.00161144 0.0119867 
-0.0200839 0.00646815 0.0348158 -0.0513048 0.0320278 0.0688066 -0.0655531 0.0494959 0.0686986 
-0.0363977 0.0237606 0.0327629 -0.0090367 0.000581516 0.0107032 0.000353763 -0.0100596 0.0137343 
0.00875694 -0.0286566 0.038143 0.0216487 -0.0701334 0.0793242 0.029947 -0.110024 0.0966966 
0.0291409 -0.0924209 0.0636037 0.0163342 -0.0403463 0.0201451 0.00542818 -0.0099804 0.00329507 
0.00249653 -0.00265288 0.00153444 0.00224057 -0.00189678 0.00186281 0.00160499 -0.00165426 0.00160111 
0.000700379 -0.000993203 0.000910158 0.000186749 -0.000304791 0.000303827 2.59571e-05 -6.94021e-05 2.28931e-05 
-1.09168e-05 -3.63619e-05 -2.85645e-05 -7.0145e-06 -1.97644e-05 -2.00311e-05 -1.07265e-06 -6.33528e-06 -6.98333e-06 
0.089511 0.00623514 -0.0403417 0.50632 -0.12498 -0.507298 1.20665 -0.587956 -1.60359 
1.34778 -0.90465 -2.16517 1.13907 -0.834678 -1.7409 0.861208 -0.66383 -1.39667 
0.266734 -0.324901 -1.02136 0.0770559 -0.0581494 -0.352909 0.0153043 -0.0102458 -0.0729371 
0.000604383 -0.00245604 -0.00949062 -7.94801e-05 -0.000190734 -0.000764708 -4.96264e-06 -2.15384e-06 -3.16699e-05 