# vtk DataFile Version 3.0
vtk output
ASCII
DATASET POLYDATA
POINTS 3300 float
0.536196 1.8484 6.56293 0.574127 1.84904 16.5322 0.665504 1.84183 26.4275 
0.783774 1.84487 36.3074 0.81525 1.84593 46.3433 0.769057 1.8149 56.4606 
0.653114 1.81671 66.5009 0.565913 1.839 76.5319 0.533527 1.84528 86.5563 
0.52664 1.84615 96.5648 0.525827 1.84633 106.566 0.525773 1.84633 116.566 
0.525771 1.84633 126.566 0.525771 1.84633 136.566 0.525771 1.84633 146.566 
0.525771 1.84633 156.566 0.525771 1.84633 166.566 0.525771 1.84633 176.566 
0.525771 1.84633 186.566 0.525771 1.84633 196.566 0.525771 1.84633 206.566 
0.525771 1.84633 216.566 0.525771 1.84633 226.566 0.525771 1.84633 236.566 
0.525771 1.84633 246.566 0.56695 11.8552 6.55021 0.701285 11.8716 16.4249 
0.991014 11.8744 26.0227 1.33042 11.8992 35.5708 1.39018 11.8938 45.6939 
1.29368 11.6373 56.0599 0.991338 11.5396 66.2052 0.682395 11.7301 76.4017 
0.552586 11.8243 86.5251 0.527936 11.844 96.56 0.525891 11.8463 106.565 
0.525779 11.8463 116.566 0.525771 11.8463 126.566 0.525771 11.8463 136.566 
0.525771 11.8463 146.566 0.525771 11.8463 156.566 0.525771 11.8463 166.566 
0.525771 11.8463 176.566 0.525771 11.8463 186.566 0.525771 11.8463 196.566 
0.525771 11.8463 206.566 0.525771 11.8463 216.566 0.525771 11.8463 226.566 
0.525771 11.8463 236.566 0.525771 11.8463 246.566 0.619466 21.8644 6.53613 
0.878121 21.9208 16.3475 1.3349 21.9505 25.7971 1.80652 21.9431 35.1219 
1.87003 21.9961 44.9925 1.77781 21.3995 55.1191 1.36933 20.8687 65.5246 
0.724828 21.3265 76.2817 0.518109 21.716 86.5259 0.520357 21.834 96.5541 
0.525473 21.8461 106.564 0.525779 21.8463 116.566 0.525772 21.8463 126.566 
0.525771 21.8463 136.566 0.525771 21.8463 146.566 0.525771 21.8463 156.566 
0.525771 21.8463 166.566 0.525771 21.8463 176.566 0.525771 21.8463 186.566 
0.525771 21.8463 196.566 0.525771 21.8463 206.566 0.525771 21.8463 216.566 
0.525771 21.8463 226.566 0.525771 21.8463 236.566 0.525771 21.8463 246.566 
0.654496 31.8721 6.52984 0.97935 31.9349 16.3858 1.46822 31.8256 26.0365 
1.93954 31.5582 35.5055 2.05163 31.6987 45.0901 1.93897 31.0626 54.7288 
1.1262 30.0022 65.5 0.0881304 30.4054 76.6614 0.201775 31.365 86.6331 
0.475904 31.7919 96.5345 0.523354 31.8441 106.56 0.525746 31.8463 116.566 
0.525786 31.8463 126.566 0.525789 31.8463 136.566 0.525784 31.8463 146.566 
0.525777 31.8463 156.566 0.525773 31.8463 166.566 0.525771 31.8463 176.566 
0.525771 31.8463 186.566 0.525771 31.8463 196.566 0.525771 31.8463 206.566 
0.525771 31.8463 216.566 0.525771 31.8463 226.566 0.525771 31.8463 236.566 
0.525771 31.8463 246.566 0.632563 41.8924 6.51768 0.943694 42.0084 16.3447 
1.46474 42.0037 25.9411 1.90977 41.781 35.4095 1.86214 41.6936 45.4547 
1.47744 40.7123 55.7468 0.196029 39.248 66.4285 -0.80922 39.6259 76.6513 
-0.183484 41.0201 86.3985 0.416554 41.7285 96.4598 0.520114 41.8386 106.553 
0.525838 41.846 116.565 0.526084 41.8463 126.566 0.526129 41.8463 136.566 
0.52603 41.8463 146.566 0.525896 41.8463 156.566 0.525814 41.8463 166.566 
0.525781 41.8463 176.566 0.525772 41.8463 186.566 0.525771 41.8463 196.566 
0.525771 41.8463 206.566 0.525771 41.8463 216.566 0.525771 41.8463 226.566 
0.525771 41.8463 236.566 0.525771 41.8463 246.566 0.590211 51.8803 6.53487 
0.835763 51.9802 16.3918 1.29884 52.0732 26.0758 1.62521 52.0112 35.8132 
1.48215 51.8099 46.0814 0.980931 51.0429 56.532 0.0037632 49.9947 66.3801 
-0.665304 50.1841 75.8516 -0.0639982 51.2084 86.0418 0.430984 51.7335 96.4341 
0.521241 51.8355 106.554 0.527646 51.8448 116.566 0.528656 51.8451 126.566 
0.528808 51.8451 136.566 0.527889 51.8454 146.566 0.526812 51.8458 156.566 
0.526155 51.8461 166.566 0.525869 51.8462 176.566 0.525786 51.8463 186.566 
0.525773 51.8463 196.566 0.525771 51.8463 206.566 0.525771 51.8463 216.566 
0.525771 51.8463 226.566 0.525771 51.8463 236.566 0.525771 51.8463 246.566 
0.561277 61.8589 6.56978 0.711535 61.9175 16.533 1.01513 62.0455 26.4227 
1.30099 62.0648 36.4029 1.34211 61.7958 46.5343 0.977542 61.4462 56.665 
0.54927 61.2049 66.4713 0.248528 61.3126 76.184 0.371452 61.6148 86.3354 
0.500844 61.7932 96.5163 0.529056 61.8373 106.563 0.5343 61.8404 116.567 
0.536822 61.8397 126.566 0.536503 61.8404 136.565 0.532948 61.8422 146.565 
0.529328 61.8441 156.565 0.527185 61.8454 166.565 0.526183 61.846 176.566 
0.52585 61.8462 186.566 0.525782 61.8463 196.566 0.525774 61.8463 206.566 
0.525772 61.8463 216.566 0.525771 61.8463 226.566 0.525771 61.8463 236.566 
0.525771 61.8463 246.566 0.544378 71.8515 6.58344 0.618933 71.8774 16.6131 
0.805347 71.9406 26.6705 1.10888 71.938 36.8651 1.23864 71.7581 46.9918 
0.895521 71.6062 56.8444 0.64828 71.6284 66.6541 0.569548 71.7214 76.5531 
0.546023 71.7943 86.5554 0.535865 71.8301 96.5666 0.536805 71.8363 106.569 
0.543021 71.8336 116.569 0.545123 71.8332 126.567 0.542369 71.8355 136.565 
0.536203 71.8392 146.564 0.531028 71.8425 156.565 0.528144 71.8446 166.565 
0.526637 71.8457 176.566 0.525999 71.8461 186.566 0.525818 71.8463 196.566 
0.525785 71.8463 206.566 0.525777 71.8463 216.566 0.525772 71.8463 226.566 
0.525771 71.8463 236.566 0.525771 71.8463 246.566 0.532444 81.8485 6.57513 
0.560074 81.8557 16.5977 0.654673 81.8678 26.6634 0.853425 81.8575 36.836 
0.934105 81.7845 46.9513 0.718377 81.7161 56.8193 0.584311 81.7502 66.6667 
0.56606 81.8058 76.6078 0.550132 81.8334 86.5857 0.536915 81.8399 96.5729 
0.540869 81.8358 106.571 0.549908 81.831 116.573 0.545914 81.8331 126.57 
0.537703 81.8377 136.566 0.532027 81.8412 146.565 0.529103 81.8434 156.565 
0.527731 81.8448 166.565 0.526773 81.8456 176.566 0.526136 81.8459 186.566 
0.525872 81.8461 196.566 0.525812 81.8463 206.566 0.525789 81.8463 216.566 
0.525775 81.8463 226.566 0.525772 81.8463 236.566 0.525771 81.8463 246.566 
0.526892 91.8467 6.56809 0.531988 91.8477 16.5736 0.555301 91.8476 26.5946 
0.60952 91.8393 36.6504 0.628554 91.8157 46.6923 0.572594 91.8008 56.6522 
0.540803 91.8173 66.5987 0.536534 91.8352 76.5788 0.53239 91.8431 86.5721 
0.532223 91.8432 96.5691 0.545107 91.8367 106.572 0.558851 91.83 116.575 
0.547458 91.8346 126.572 0.532804 91.8415 136.567 0.527725 91.8443 146.566 
0.526857 91.8451 156.566 0.526702 91.8455 166.566 0.526411 91.8457 176.566 
0.526064 91.8459 186.566 0.525879 91.8461 196.566 0.525829 91.8463 206.566 
0.525798 91.8463 216.566 0.525777 91.8463 226.566 0.525772 91.8463 236.566 
0.525771 91.8463 246.566 0.525812 101.846 6.56649 0.525955 101.846 16.5672 
0.527533 101.845 26.5704 0.531972 101.842 36.5793 0.532532 101.838 46.5866 
0.528196 101.838 56.5801 0.527345 101.842 66.5706 0.52715 101.845 76.5674 
0.526677 101.846 86.5668 0.529037 101.845 96.5671 0.539293 101.84 106.569 
0.54932 101.836 116.572 0.54035 101.839 126.57 0.529469 101.844 136.567 
0.52625 101.846 146.566 0.525981 101.846 156.566 0.526024 101.846 166.566 
0.525984 101.846 176.566 0.525888 101.846 186.566 0.525828 101.846 196.566 
0.525808 101.846 206.566 0.525788 101.846 216.566 0.525775 101.846 226.566 
0.525772 101.846 236.566 0.525771 101.846 246.566 0.52577 111.846 6.56634 
0.525747 111.846 16.5664 0.525714 111.846 26.5667 0.525672 111.845 36.5677 
0.525397 111.845 46.5687 0.525436 111.845 56.5679 0.525858 111.846 66.5667 
0.525917 111.846 76.5663 0.525904 111.846 86.5663 0.52668 111.846 96.5665 
0.529714 111.845 106.567 0.532647 111.843 116.568 0.529988 111.844 126.567 
0.526793 111.846 136.566 0.52587 111.846 146.566 0.525797 111.846 156.566 
0.525807 111.846 166.566 0.525807 111.846 176.566 0.525794 111.846 186.566 
0.525786 111.846 196.566 0.525782 111.846 206.566 0.525776 111.846 216.566 
0.525772 111.846 226.566 0.525771 111.846 236.566 0.525771 111.846 246.566 
10.5704 1.85331 6.54947 10.7276 1.82923 16.3806 11.0425 1.70288 25.8451 
11.356 1.61533 35.3437 11.414 1.65098 45.6062 11.3427 1.63269 56.0948 
10.9338 1.7244 66.2419 10.6399 1.82428 76.404 10.5448 1.84231 86.5223 
10.5275 1.84518 96.5597 10.5259 1.84628 106.565 10.5258 1.84633 116.566 
10.5258 1.84633 126.566 10.5258 1.84633 136.566 10.5258 1.84633 146.566 
10.5258 1.84633 156.566 10.5258 1.84633 166.566 10.5258 1.84633 176.566 
10.5258 1.84633 186.566 10.5258 1.84633 196.566 10.5258 1.84633 206.566 
10.5258 1.84633 216.566 10.5258 1.84633 226.566 10.5258 1.84633 236.566 
10.5258 1.84633 246.566 10.7056 11.8932 6.47591 11.3004 11.9632 15.7557 
12.5224 11.8699 23.5135 13.7426 11.6211 30.9594 13.1468 11.3072 42.3387 
12.9544 10.5638 54.6029 11.8865 10.4216 65.0966 10.9207 11.3449 75.865 
10.5652 11.7373 86.3847 10.5215 11.8274 96.5368 10.525 11.845 106.563 
10.5258 11.8463 116.566 10.5258 11.8463 126.566 10.5258 11.8463 136.566 
10.5258 11.8463 146.566 10.5258 11.8463 156.566 10.5258 11.8463 166.566 
10.5258 11.8463 176.566 10.5258 11.8463 186.566 10.5258 11.8463 196.566 
10.5258 11.8463 206.566 10.5258 11.8463 216.566 10.5258 11.8463 226.566 
10.5258 11.8463 236.566 10.5258 11.8463 246.566 10.9241 21.9676 6.36243 
12.0442 22.3999 15.1913 13.9785 22.8496 22.1373 15.4673 22.006 28.8402 
14.0694 21.2997 40.1461 13.3077 19.5679 52.7578 12.6415 17.7903 63.2169 
10.9576 19.9456 75.445 10.3986 21.318 86.3794 10.4702 21.757 96.5124 
10.5199 21.8399 106.557 10.5256 21.8461 116.565 10.5258 21.8463 126.566 
10.5258 21.8463 136.566 10.5258 21.8463 146.566 10.5258 21.8463 156.566 
10.5258 21.8463 166.566 10.5258 21.8463 176.566 10.5258 21.8463 186.566 
10.5258 21.8463 196.566 10.5258 21.8463 206.566 10.5258 21.8463 216.566 
10.5258 21.8463 226.566 10.5258 21.8463 236.566 10.5258 21.8463 246.566 
11.037 32.0013 6.30338 12.2754 32.4338 15.3951 13.6834 32.2722 23.6603 
14.1906 30.8745 32.1953 13.7468 30.8177 42.47 12.5745 29.1702 53.2813 
12.0188 26.3217 63.4448 9.88936 28.4809 77.113 9.82711 30.5702 86.9587 
10.3657 31.6291 96.5128 10.5125 31.831 106.548 10.5254 31.8458 116.565 
10.5259 31.8463 126.566 10.526 31.8463 136.566 10.5259 31.8463 146.566 
10.5259 31.8463 156.566 10.5258 31.8463 166.566 10.5258 31.8463 176.566 
10.5258 31.8463 186.566 10.5258 31.8463 196.566 10.5258 31.8463 206.566 
10.5258 31.8463 216.566 10.5258 31.8463 226.566 10.5258 31.8463 236.566 
[...]
POINT_DATA 3300
VECTORS velocity double
0.00924552 0.00128609 -0.00409514 0.0364873 -0.0046164 -0.0370621 0.0817319 -0.0334787 -0.120391 
0.135357 -0.0498433 -0.165839 0.17306 -0.0440011 -0.122787 0.172015 -0.0542754 -0.0676638 
0.0976205 -0.041292 -0.0542018 0.0328227 -0.0100758 -0.0291168 0.0067853 -0.00148629 -0.00881375 
0.000802638 -0.000210782 -0.00141726 5.43617e-05 3.34812e-09 -0.000111967 2.40668e-06 1.46647e-06 -4.1906e-06 
6.96382e-08 7.5634e-08 -7.69302e-08 1.05012e-09 1.2589e-09 -1.00772e-09 1.84836e-11 4.61396e-11 -8.82273e-12 
5.00601e-12 1.84524e-11 -1.17522e-12 1.3626e-12 5.85575e-12 -6.5506e-13 2.5894e-13 1.21189e-12 -1.92008e-13 
3.70476e-14 1.53834e-13 -3.56009e-14 3.49397e-15 1.09143e-14 -4.05852e-15 1.86445e-16 4.19377e-16 -2.57498e-16 
5.86607e-18 1.08267e-17 -7.83016e-18 4.49709e-19 1.02337e-18 -6.97952e-20 1.08653e-19 2.70115e-19 7.14591e-22 
1.92923e-20 6.65429e-20 -1.89617e-21 0.0341483 0.00572934 -0.0195278 0.115744 -0.000983594 -0.15353 
0.208375 -0.0663106 -0.461257 0.302171 -0.0897147 -0.607548 0.420816 -0.0867227 -0.463926 
0.496392 -0.304368 -0.351985 0.318753 -0.354834 -0.294726 0.108018 -0.122127 -0.123662 
0.0192268 -0.0246876 -0.0317763 0.00160906 -0.0025842 -0.00556764 0.000103532 -5.04072e-05 -0.000552864 
7.76315e-06 7.44835e-06 -2.66043e-05 3.53515e-07 4.21916e-07 -6.33059e-07 9.54041e-09 1.27247e-08 -8.73228e-09 
2.69016e-09 4.61756e-09 -3.14192e-10 1.20785e-09 2.16659e-09 -2.98259e-10 3.57203e-10 6.87867e-10 -1.44285e-10 
7.26692e-11 1.45508e-10 -4.28028e-11 1.01302e-11 1.91345e-11 -8.34965e-12 8.70987e-13 1.40983e-12 -9.42743e-13 
4.30388e-14 5.89194e-14 -5.74631e-14 1.69228e-15 2.91611e-15 -1.61525e-15 2.34192e-16 5.28186e-16 -1.47077e-17 
5.13635e-17 1.20989e-16 -2.98269e-18 9.09265e-18 2.78223e-17 -1.35246e-18 0.0753901 0.0139399 -0.0374464 
0.228073 0.046622 -0.240871 0.380243 0.0278821 -0.661806 0.522131 0.0349732 -0.934329 
0.662917 0.0663048 -1.03608 0.765545 -0.518436 -1.17818 0.467101 -0.994185 -0.791303 
0.0185754 -0.545403 -0.104117 -0.0492992 -0.161082 0.00574498 -0.00899038 -0.0155116 -0.00911117 
-0.000404193 -0.000330943 -0.00188037 6.31301e-06 1.8229e-05 -0.000117185 1.12414e-06 1.24535e-06 -3.13801e-06 
3.90422e-07 3.39162e-07 -4.71222e-08 2.81218e-07 2.21634e-07 -3.92799e-08 1.31095e-07 1.00085e-07 -3.29086e-08 
4.09155e-08 3.11703e-08 -1.50577e-08 8.72137e-09 6.70557e-09 -4.77202e-09 1.202e-09 9.28118e-10 -9.80659e-10 
9.73466e-11 7.42353e-11 -1.06458e-10 4.68951e-12 4.15473e-12 -6.03697e-12 2.99664e-13 5.40239e-13 -1.52438e-13 
5.97194e-14 1.1883e-13 -7.82719e-15 1.17254e-14 2.25234e-14 -2.42317e-15 2.23218e-15 4.76513e-15 -4.72776e-16 
0.106074 0.0237478 -0.0436257 0.329127 0.0755926 -0.202425 0.598002 -0.010156 -0.519009 
0.836388 -0.107051 -0.857171 0.938366 -0.00512966 -1.21212 0.843611 -0.643481 -1.5537 
0.0191184 -1.76624 -0.631378 -0.78706 -1.52063 0.395709 -0.451052 -0.593431 0.174849 
-0.0640406 -0.0699671 -0.0233952 -0.00279632 -0.00261835 -0.00602627 -2.86142e-05 -4.42063e-05 -0.000360336 
1.49051e-05 4.0405e-06 -8.74053e-06 1.74884e-05 4.44949e-06 -1.20576e-06 1.29274e-05 2.53483e-06 -2.17977e-06 
6.17686e-06 8.99116e-07 -1.54838e-06 2.03551e-06 1.94635e-07 -7.22145e-07 4.53989e-07 3.06853e-08 -2.5439e-07 
6.23344e-08 5.42319e-09 -5.46609e-08 4.83793e-09 8.99648e-10 -5.56179e-09 2.56287e-10 1.87149e-10 -2.82179e-10 
3.42384e-11 5.92013e-11 -7.29662e-12 7.80238e-12 1.24585e-11 -2.18525e-12 1.3839e-12 1.66997e-12 -5.81998e-13 
2.994e-13 2.85172e-13 -7.75996e-14 0.0926448 0.0456868 -0.0540292 0.334339 0.156503 -0.233532 
0.697688 0.184398 -0.609564 0.959082 0.102968 -0.962014 0.919543 0.00479936 -0.858434 
0.548786 -0.905173 -0.720426 -0.811678 -2.36209 -0.160632 -1.63469 -2.1487 0.166073 
-0.831028 -0.893942 -0.0875808 -0.123273 -0.130648 -0.0947094 -0.00597383 -0.00798491 -0.0124177 
5.84668e-05 -0.000340298 -0.000634365 0.00030015 -4.41987e-05 -1.11363e-05 0.00034198 -4.80465e-05 -3.12561e-05 
0.000248291 -4.29651e-05 -4.49377e-05 0.00012138 -2.68205e-05 -2.99528e-05 4.23669e-05 -1.18576e-05 -1.5333e-05 
1.00287e-05 -3.23807e-06 -6.11347e-06 1.42972e-06 -4.4854e-07 -1.36932e-06 1.15964e-07 -1.66099e-08 -1.33736e-07 
9.16781e-09 7.66115e-09 -6.18663e-09 2.2841e-09 3.35254e-09 -3.27155e-10 5.14935e-10 6.16471e-10 -2.27485e-10 
8.77966e-11 3.18896e-11 -5.48572e-11 2.22451e-11 -1.71891e-12 -5.96964e-12 0.0591442 0.0349583 -0.0360507 
0.268571 0.134188 -0.185405 0.637268 0.239248 -0.470527 0.871023 0.233188 -0.613802 
0.746458 0.0434874 -0.349591 0.25918 -0.613941 -0.0627085 -0.732685 -1.49095 -0.317213 
-1.31286 -1.42368 -0.711968 -0.612535 -0.585246 -0.477175 -0.0942823 -0.105512 -0.11445 
-0.00439768 -0.0102196 -0.0110314 0.00171239 -0.00143769 -0.000384218 0.00260384 -0.00123516 -2.12085e-05 
0.00272585 -0.00120625 -0.000278061 0.0019261 -0.000873691 -0.000345043 0.000968688 -0.000473025 -0.000231604 
0.000365738 -0.00019642 -0.000141354 9.5224e-05 -5.48045e-05 -6.45337e-05 1.5085e-05 -8.44029e-06 -1.50341e-05 
1.48179e-06 -4.71943e-07 -1.43405e-06 2.06803e-07 1.54826e-07 -5.55652e-08 6.83836e-08 8.19693e-08 -7.97988e-09 
1.53996e-08 1.38173e-08 -8.01958e-09 2.96475e-09 -5.62584e-10 -1.95974e-09 8.69893e-10 -4.47038e-10 -2.09741e-10 
0.0333794 0.0131547 0.000149998 0.16719 0.0721448 -0.0464373 0.419858 0.199353 -0.154659 
0.651837 0.237206 -0.131146 0.693884 -0.00578759 0.000828158 0.362486 -0.307763 0.0867938 
-0.0273978 -0.470105 -0.0947821 -0.26527 -0.392771 -0.321094 -0.139149 -0.182347 -0.185992 
-0.0224808 -0.0458501 -0.0394931 0.00291213 -0.00847466 -0.00287212 0.00734884 -0.00558172 0.000677686 
0.00930922 -0.00611632 3.40907e-05 0.00901134 -0.00549593 -0.000854488 0.0061718 -0.0038047 -0.00101604 
0.00317527 -0.00204372 -0.000731893 0.00130515 -0.000880284 -0.000536825 0.000390061 -0.000268822 -0.000267397 
7.67648e-05 -5.06401e-05 -6.32538e-05 1.10021e-05 -5.57887e-06 -5.66956e-06 2.50335e-06 8.78972e-07 4.40688e-08 
9.29836e-07 8.16165e-07 -5.74113e-08 2.14966e-07 1.32736e-07 -1.12355e-07 4.78322e-08 -2.10451e-08 -2.98118e-08 
1.50654e-08 -9.39719e-09 -3.39624e-09 0.0173779 0.00536565 0.0154313 0.0840815 0.0342003 0.0381011 
0.239963 0.106903 0.0770526 0.492289 0.119413 0.260624 0.599474 -0.0455823 0.404103 
0.298582 -0.194615 0.275811 0.0809499 -0.179339 0.0929443 0.0248214 -0.0983229 -0.00302949 
0.0152909 -0.0425499 -0.00348886 0.00905567 -0.0145523 0.00205082 0.00956706 -0.00924807 0.00277832 
0.0142973 -0.0113749 0.00272507 0.015546 -0.0114398 0.000877311 0.0132189 -0.0093165 -0.000893814 
0.00855707 -0.00624876 -0.00121485 0.00452309 -0.00343769 -0.000990576 0.00212817 -0.00160772 -0.000861252 
0.000801947 -0.000590103 -0.00044853 0.000217541 -0.000171066 -0.000100761 4.54828e-05 -4.56851e-05 -3.79737e-06 
1.40113e-05 -4.28812e-06 3.50463e-06 5.71e-06 2.50842e-06 2.84292e-07 1.38792e-06 4.23236e-07 -6.1398e-07 
3.30188e-07 -1.66478e-07 -1.93069e-07 1.02769e-07 -6.24923e-08 -2.43287e-08 0.00627642 0.00229499 0.00832178 
0.0312539 0.0106249 0.0286321 0.111519 0.0283253 0.0827552 0.279398 0.0329408 0.235508 
0.343417 -0.022448 0.353351 0.155267 -0.0965239 0.244195 0.0377791 -0.0800702 0.0987105 
0.0279207 -0.0338801 0.0392108 0.0199107 -0.0110245 0.0195661 0.0101131 -0.00582936 0.00687002 
0.0136993 -0.00960219 0.00498285 0.0215935 -0.0138469 0.00630862 0.0174665 -0.011625 0.00337543 
0.00990745 -0.00736193 0.00020025 0.0051975 -0.00447891 -0.000569733 0.00287532 -0.0025916 -0.000562409 
0.00175001 -0.00140302 -0.000535986 0.000919797 -0.000707003 -0.000262663 0.000344581 -0.000344743 -3.25735e-05 
9.77301e-05 -0.000148354 2.13615e-05 3.97751e-05 -2.97134e-05 1.51078e-05 1.75992e-05 1.19269e-06 1.71086e-06 
4.32234e-06 1.41414e-07 -1.76253e-06 9.42249e-07 -4.98923e-07 -5.929e-07 2.71634e-07 -1.59943e-07 -7.59164e-08 
0.0010716 0.000440319 0.00170212 0.0057071 0.00161439 0.00687068 0.0255839 0.00299339 0.0249929 
0.0712533 0.000130872 0.0740164 0.0850947 -0.0168639 0.114784 0.0366496 -0.0339288 0.0822774 
0.00985013 -0.0240119 0.0314299 0.00803262 -0.00910277 0.0115073 0.00559325 -0.00264232 0.0056773 
0.00607542 -0.00286569 0.00275829 0.0184795 -0.00907054 0.00544363 0.031609 -0.0154543 0.00907945 
0.020613 -0.0109964 0.00564134 0.00649689 -0.00435625 0.00122767 0.00172065 -0.00180849 -3.52662e-05 
0.000964413 -0.00108977 -0.000134741 0.000844745 -0.000730843 -0.000129168 0.000591628 -0.000517469 -3.42513e-05 
0.000276025 -0.000354587 3.7732e-05 0.000104196 -0.000186678 4.12499e-05 5.69174e-05 -4.81901e-05 2.19364e-05 
2.64956e-05 -4.64953e-06 1.58816e-06 6.30726e-06 -1.21045e-06 -2.79357e-06 1.11363e-06 -6.36672e-07 -8.66094e-07 
2.74713e-07 -1.61362e-07 -1.03735e-07 3.8195e-05 1.44439e-05 0.000154855 0.000141604 -1.0263e-05 0.000830865 
0.00140677 -0.000591933 0.00389639 0.00497596 -0.00290215 0.0122034 0.00468187 -0.00638178 0.0196553 
0.00096285 -0.00664148 0.0140124 0.000980194 -0.00356911 0.00443577 0.00118191 -0.00123141 0.00101848 
0.000824308 -0.000358663 0.000449923 0.00317433 -0.00123571 0.000792028 0.0131617 -0.0053539 0.00326966 
0.0229218 -0.00971527 0.00588876 0.014228 -0.00654278 0.00378457 0.00360381 -0.00196572 0.000920302 
0.000456214 -0.000463599 6.28101e-05 0.000194838 -0.000263886 -9.37295e-06 0.000235356 -0.000225062 -4.77248e-06 
0.000200312 -0.000205055 1.78097e-05 0.000110962 -0.000162439 3.08491e-05 5.55298e-05 -9.11755e-05 2.43858e-05 
3.66042e-05 -2.77018e-05 1.08281e-05 1.69248e-05 -5.46533e-06 -7.37737e-07 3.80235e-06 -1.45746e-06 -2.11065e-06 
5.29922e-07 -3.67912e-07 -5.47926e-07 1.07249e-07 -6.87091e-08 -5.81831e-08 -1.37422e-06 -2.39892e-06 1.33624e-05 
-2.73e-05 -1.94331e-05 8.92302e-05 -8.30648e-05 -0.00013805 0.000439569 -0.00019518 -0.000470711 0.00141715 
-0.000569802 -0.000690539 0.00242138 -0.000494793 -0.000449779 0.00170271 3.42551e-05 -0.000192906 0.000405808 
0.000139546 -7.36706e-05 -1.22788e-05 0.000129715 -3.65938e-05 -1.27588e-05 0.000894414 -0.000315342 0.000179648 
0.00386555 -0.00145236 0.00087978 0.00673498 -0.00266309 0.0016005 0.00414524 -0.00176601 0.00103303 
0.00100795 -0.000480608 0.000255458 9.72409e-05 -7.25117e-05 2.06497e-05 2.49723e-05 -3.4092e-05 9.56024e-07 
3.47907e-05 -3.75013e-05 2.48516e-06 3.4279e-05 -4.10792e-05 6.62966e-06 2.25687e-05 -3.44791e-05 8.35246e-06 
1.47081e-05 -1.99227e-05 6.05242e-06 1.08138e-05 -7.38508e-06 2.03621e-06 4.86673e-06 -2.24592e-06 -7.93115e-07 
1.02368e-06 -5.97862e-07 -7.18017e-07 1.09697e-07 -1.01632e-07 -1.57309e-07 1.64713e-08 -1.317e-08 -1.45693e-08 
0.0404287 0.00193855 -0.0238864 0.156938 -0.0632573 -0.234466 0.281054 -0.308244 -0.734286 
0.367862 -0.477015 -0.896363 0.551613 -0.394233 -0.522336 0.640008 -0.34757 -0.298836 
0.329059 -0.212894 -0.283983 0.0933885 -0.048967 -0.140366 0.0155568 -0.00786551 -0.0380498 
0.00140976 -0.00144106 -0.00604662 6.50317e-05 -6.04829e-05 -0.000522946 3.14976e-06 3.63591e-06 -2.23463e-05 
1.50634e-07 2.85503e-07 -4.83791e-07 2.79087e-09 5.552e-09 -6.88527e-09 1.88157e-11 4.99521e-10 -4.01135e-11 
-3.34775e-12 2.29805e-10 -2.04694e-12 -2.30005e-12 7.44084e-11 -3.74365e-12 -4.57822e-13 1.56816e-11 -1.36273e-12 
1.90868e-14 2.01716e-12 -2.86435e-13 1.28305e-14 1.43892e-13 -3.6619e-14 1.17843e-15 5.62404e-15 -2.5111e-15 
7.66593e-17 2.17863e-16 -7.23582e-17 1.58733e-17 4.10373e-17 -3.90553e-20 3.74931e-18 1.04227e-17 -4.35625e-20 
5.41549e-19 2.38398e-18 -6.02481e-20 0.155701 0.0289346 -0.124857 0.55023 -0.0154233 -1.00406 
0.965719 -0.430621 -3.05559 1.09597 -1.1283 -4.6197 1.20551 -1.08854 -2.5834 
1.79671 -1.77753 -1.32894 1.01765 -1.79918 -1.27973 0.267384 -0.612042 -0.5654 
0.0112419 -0.130649 -0.137602 -0.00716727 -0.0212407 -0.0252928 -0.00094718 -0.00136011 -0.00280487 
-3.22084e-05 -1.88492e-05 -0.000147458 1.24206e-07 9.78423e-07 -3.73972e-06 2.54374e-08 9.76057e-08 -4.89264e-08 
1.20338e-08 5.69547e-08 -5.58817e-10 5.71618e-09 2.72233e-08 -1.99397e-09 1.77514e-09 8.76991e-09 -1.18933e-09 
3.91815e-10 1.88695e-09 -3.98583e-10 6.1238e-11 2.52608e-10 -8.45421e-11 5.98173e-12 1.88833e-11 -9.8682e-12 
3.53617e-13 8.55828e-13 -6.00559e-13 3.21749e-14 8.09448e-14 -1.24878e-14 8.02632e-15 2.05163e-14 6.75448e-17 
1.64488e-15 4.50387e-15 -1.0319e-16 2.35955e-16 9.8059e-16 -3.90373e-17 0.338185 0.104584 -0.273599 
1.0715 0.46443 -1.67187 1.89605 0.866028 -4.60253 2.15194 0.460244 -7.29072 
1.63176 -0.273867 -4.64133 1.90733 -2.60475 -3.14781 1.41628 -4.55311 -2.85663 
0.0591358 -1.96515 -0.619056 -0.237012 -0.607456 -0.00192353 -0.0696403 -0.102243 -0.035499 
-0.00642965 -0.00687521 -0.00812817 -0.000221259 -0.000172544 -0.000530915 9.70093e-08 3.57345e-06 -1.42428e-05 
2.71928e-06 4.00064e-06 -1.01517e-07 2.18721e-06 2.69989e-06 -3.29576e-07 1.09691e-06 1.20901e-06 -3.16846e-07 
3.70531e-07 3.72658e-07 -1.59031e-07 8.31051e-08 8.08038e-08 -5.61734e-08 1.13822e-08 1.16338e-08 -1.22086e-08 
8.93515e-10 9.90231e-10 -1.29268e-09 4.89875e-11 7.36077e-11 -6.74207e-11 7.51403e-12 1.73171e-11 -8.17151e-13 
1.90487e-12 4.36629e-12 -2.13075e-13 3.39937e-13 7.57539e-13 -7.57813e-14 5.88961e-14 1.51737e-13 -1.22481e-14 
0.440581 0.157578 -0.328006 1.32843 0.579608 -1.37023 2.1598 0.538627 -3.12847 
2.43353 -0.384558 -4.36583 2.23236 -0.242592 -3.15381 1.40309 -2.23143 -3.34996 
0.763606 -5.2459 -2.59842 -1.14546 -3.20647 1.30487 -0.858733 -1.39424 0.709473 
-0.187473 -0.250808 -0.00976967 -0.0142708 -0.0164096 -0.0162294 -0.000397178 -0.000477297 -0.00111119 
0.000130611 4.35286e-05 -2.01384e-05 0.000174268 4.10609e-05 -1.268e-05 0.000136382 1.89452e-05 -2.57167e-05 
7.00878e-05 3.07715e-06 -1.84665e-05 2.49863e-05 -1.13776e-06 -9.39529e-06 5.78823e-06 -5.03347e-07 -3.68283e-06 
7.70095e-07 -3.20445e-08 -8.18838e-07 5.57038e-08 9.46553e-09 -7.88068e-08 3.73968e-09 4.6323e-09 -3.33177e-09 
9.78405e-10 1.94849e-09 -3.88954e-11 2.26943e-10 4.19172e-10 -7.28308e-11 3.78671e-11 3.61057e-11 -1.78332e-11 
9.84071e-12 4.01034e-12 -1.78019e-12 0.325502 0.227493 -0.310447 1.05205 0.714681 -1.13995 
1.8969 0.879057 -2.47053 2.32668 0.506401 -3.64212 1.88919 0.287618 -2.22641 
0.855628 -2.62734 -0.776377 -1.20447 -5.16174 1.16601 -2.41121 -4.21265 2.0633 
-1.253 -1.84148 0.501892 -0.22543 -0.323368 -0.116741 -0.014037 -0.0229964 -0.0250424 
0.0016546 -0.00143673 -0.00117528 0.0034012 -0.00097034 -6.34567e-06 0.00400854 -0.00115847 -0.000432725 
0.00305504 -0.000992447 -0.000594344 0.00160519 -0.000615766 -0.00039779 0.000604254 -0.000272565 -0.000227765 
0.000147737 -7.3259e-05 -0.000100023 2.0506e-05 -9.79934e-06 -2.28023e-05 1.60506e-06 -3.29793e-07 -2.07715e-06 
1.87562e-07 2.21364e-07 -6.40158e-08 6.66316e-08 1.10038e-07 -3.73053e-09 1.38889e-08 1.82568e-08 -7.41774e-09 
2.68441e-09 -1.70333e-09 -1.65475e-09 1.01785e-09 -8.05953e-10 -1.28339e-10 0.17602 0.184083 -0.178005 
0.674036 0.707684 -0.750154 1.28923 1.33589 -1.41443 1.67779 0.907129 -1.22557 
1.58113 -0.341957 -0.418342 0.426039 -2.1442 0.512161 -0.849397 -3.8191 0.0680318 
-1.76056 -3.37455 -0.745349 -0.795204 -1.27614 -0.732145 -0.123277 -0.221612 -0.19333 
0.00337268 -0.0277234 -0.0168192 0.0222655 -0.0172357 0.00153798 0.0317432 -0.021547 -0.000582117 
0.0342178 -0.0213186 -0.00400894 0.0254011 -0.0157944 -0.00467409 0.0138235 -0.00895181 -0.00323268 
0.00564463 -0.00388562 -0.00228452 0.00152142 -0.0010965 -0.00112709 0.000240502 -0.000168262 -0.000262632 
2.46021e-05 -1.01561e-05 -2.21993e-05 5.04657e-06 4.52704e-06 2.78777e-07 2.01129e-06 2.80963e-06 3.92349e-08 
4.25244e-07 3.83882e-07 -2.28613e-07 1.22431e-07 -1.30911e-07 -5.89931e-08 5.16029e-08 -4.74106e-08 -5.48157e-09 
0.106714 0.101647 -0.00498169 0.420853 0.6748 -0.160578 0.777873 1.90534 -0.159654 
1.30143 1.60525 0.596815 1.68397 -0.450558 0.538296 0.754754 -1.55454 0.678888 
0.179114 -1.56626 0.196757 -0.0560077 -0.995069 -0.375861 -0.0130509 -0.39697 -0.175843 
0.0256863 -0.111776 -0.00629588 0.0517187 -0.062592 0.0168987 0.0873305 -0.0855541 0.0128159 
0.111295 -0.0974295 0.00011995 0.111174 -0.0877899 -0.0113106 0.0802887 -0.0627045 -0.0129279 
0.0452464 -0.0359013 -0.0102084 0.0204139 -0.0164988 -0.008918 0.00647222 -0.00523712 -0.00467548 
0.00134562 -0.00108402 -0.0010619 0.000213695 -0.000168382 -5.48873e-05 6.54866e-05 2.48505e-05 2.64e-05 
2.81829e-05 3.11806e-05 5.77302e-06 6.58103e-06 3.88577e-06 -2.40794e-06 2.48049e-06 -2.40327e-06 -9.04914e-07 
1.0246e-06 -8.47729e-07 -1.14262e-07 0.0682139 0.0493504 0.0701303 0.26677 0.45487 0.191857 
0.579623 1.37203 0.4865 1.10603 1.06521 1.46539 1.21334 -0.619031 1.72529 
0.431215 -1.31141 1.35188 0.126842 -0.953541 0.854052 0.230897 -0.448569 0.557506 
0.200827 -0.173721 0.38315 0.0941027 -0.0941608 0.146662 0.0927623 -0.120169 0.055872 
0.142711 -0.158748 0.0420808 0.164756 -0.159697 0.0153344 0.14911 -0.132648 -0.00860621 
0.102708 -0.0943004 -0.0132209 0.061238 -0.056956 -0.0134229 0.0331503 -0.0291662 -0.0141405 
0.0139679 -0.0118229 -0.00736002 0.00418683 -0.00433773 -0.00127816 0.000947776 -0.00153512 0.000305589 
0.000379543 -0.000136462 0.000312481 0.000185612 0.000127148 9.26652e-05 4.98643e-05 1.6918e-05 -4.77778e-06 
1.9812e-05 -1.46454e-05 -5.96294e-06 7.56131e-06 -5.2518e-06 -1.03449e-06 0.025414 0.0164387 0.0373332 
0.111009 0.13198 0.125094 0.313053 0.402467 0.32416 0.637781 0.335412 0.922047 
0.556302 -0.296989 1.44434 0.0980615 -0.617576 1.23456 0.0119622 -0.444066 0.758943 
0.106427 -0.213071 0.509506 0.0936007 -0.0871197 0.33878 0.0531378 -0.0677158 0.130826 
0.0811632 -0.109006 0.0697291 0.13423 -0.140558 0.0782678 0.129167 -0.122949 0.0428798 
0.0913757 -0.0900488 0.00489228 0.0548372 -0.0644397 -0.00482447 0.0369382 -0.0427499 -0.00734967 
0.0281973 -0.0258034 -0.0082847 0.0171265 -0.015369 -0.0032864 0.006935 -0.00974051 0.000804034 
0.00202631 -0.00495359 0.00159908 0.00110677 -0.00089638 0.0011931 0.000609364 0.000185558 0.00038043 
0.000171598 2.324e-05 2.58461e-06 5.91461e-05 -3.578e-05 -1.83594e-05 2.05874e-05 -1.26085e-05 -3.52107e-06 
0.002361 0.00285865 0.00811829 0.00485986 0.0193066 0.0315776 0.0164499 0.0559087 0.100105 
0.0505078 0.0488861 0.299807 -0.0240884 -0.0603269 0.546979 -0.0985806 -0.124122 0.501763 
-0.0382327 -0.0944421 0.270469 0.00437938 -0.0522561 0.153377 0.000873723 -0.0228501 0.101745 
0.0126574 -0.0277738 0.0463474 0.0708608 -0.0700746 0.0521154 0.131726 -0.108056 0.079464 
0.0951048 -0.0812302 0.0490058 0.0377228 -0.0421526 0.0109088 0.0142241 -0.0260097 5.51246e-05 
0.0124444 -0.0190178 -0.00159281 0.014564 -0.0141211 -0.00159916 0.0114613 -0.0119433 0.00053939 
0.00546956 -0.0101736 0.00214624 0.00211037 -0.0060174 0.00235156 0.0016319 -0.00142797 0.00172292 
0.000953064 1.10084e-05 0.000535337 0.000261043 -1.6626e-05 -2.84268e-06 6.8452e-05 -3.64378e-05 -2.67439e-05 
2.07639e-05 -1.15476e-05 -4.79917e-06 -0.00077756 0.000203026 0.00131799 -0.00770918 0.00161077 0.0073777 
-0.028975 0.00444296 0.028669 -0.0621177 0.00448851 0.0851562 -0.100567 0.00443633 0.162315 
-0.0824166 0.00941351 0.14837 -0.0242209 0.00284017 0.0656696 -0.00465876 -0.00425422 0.0236287 
-0.00535737 -0.00301103 0.0129805 0.00691011 -0.00863409 0.0090775 0.0493397 -0.0330309 0.0229348 
0.091021 -0.0577476 0.0399403 0.0582142 -0.0400115 0.0256334 0.0156895 -0.0146964 0.00627196 
0.00265522 -0.00631267 0.000508509 0.00271414 -0.00489852 -7.22846e-05 0.00425936 -0.00454964 9.40853e-05 
0.00389508 -0.00481319 0.000734209 0.00214329 -0.00449572 0.00120579 0.00118566 -0.00278306 0.00124537 
0.00110295 -0.000820052 0.000861944 0.000619519 -0.000127825 0.000218673 0.000157331 -4.35638e-05 -2.62627e-05 
3.0617e-05 -1.75951e-05 -1.7259e-05 7.84263e-06 -4.33386e-06 -2.53435e-06 -0.000146422 7.69213e-06 0.000234539 
-0.00141811 0.000113967 0.00151815 -0.00597536 0.000197204 0.00617064 -0.0148519 0.000364976 0.0183489 
-0.0241813 0.00350352 0.0348829 -0.018736 0.00683324 0.031175 -0.00468025 0.00378282 0.012176 
-0.000185628 0.00031912 0.0022892 -0.00029167 -0.000314659 0.000562845 0.00290156 -0.00188204 0.00122114 
0.0151157 -0.0081858 0.0051325 0.0271072 -0.0147851 0.00929905 0.0168899 -0.00992282 0.00604797 